# vtk DataFile Version 2.0
FlowField
ASCII
DATASET UNSTRUCTURED_GRID
POINTS 1331 double
 0.00000e+00  1.00000e-02  1.00000e-02
 0.00000e+00  0.00000e+00  1.00000e-02
 1.00000e-02  0.00000e+00  1.00000e-02
 1.00000e-02  1.00000e-02  1.00000e-02
 0.00000e+00  1.00000e-02  0.00000e+00
 0.00000e+00  0.00000e+00  0.00000e+00
 1.00000e-02  0.00000e+00  0.00000e+00
 1.00000e-02  1.00000e-02  0.00000e+00
 2.00000e-02  0.00000e+00  1.00000e-02
 2.00000e-02  1.00000e-02  1.00000e-02
 2.00000e-02  0.00000e+00  0.00000e+00
 2.00000e-02  1.00000e-02  0.00000e+00
 3.00000e-02  0.00000e+00  1.00000e-02
 3.00000e-02  1.00000e-02  1.00000e-02
 3.00000e-02  0.00000e+00  0.00000e+00
 3.00000e-02  1.00000e-02  0.00000e+00
 4.00000e-02  0.00000e+00  1.00000e-02
 4.00000e-02  1.00000e-02  1.00000e-02
 4.00000e-02  0.00000e+00  0.00000e+00
 4.00000e-02  1.00000e-02  0.00000e+00
 5.00000e-02  0.00000e+00  1.00000e-02
 5.00000e-02  1.00000e-02  1.00000e-02
 5.00000e-02  0.00000e+00  0.00000e+00
 5.00000e-02  1.00000e-02  0.00000e+00
 6.00000e-02  0.00000e+00  1.00000e-02
 6.00000e-02  1.00000e-02  1.00000e-02
 6.00000e-02  0.00000e+00  0.00000e+00
 6.00000e-02  1.00000e-02  0.00000e+00
 7.00000e-02  0.00000e+00  1.00000e-02
 7.00000e-02  1.00000e-02  1.00000e-02
 7.00000e-02  0.00000e+00  0.00000e+00
 7.00000e-02  1.00000e-02  0.00000e+00
 8.00000e-02  0.00000e+00  1.00000e-02
 8.00000e-02  1.00000e-02  1.00000e-02
 8.00000e-02  0.00000e+00  0.00000e+00
 8.00000e-02  1.00000e-02  0.00000e+00
 9.00000e-02  0.00000e+00  1.00000e-02
 9.00000e-02  1.00000e-02  1.00000e-02
 9.00000e-02  0.00000e+00  0.00000e+00
 9.00000e-02  1.00000e-02  0.00000e+00
 1.00000e-01  0.00000e+00  1.00000e-02
 1.00000e-01  1.00000e-02  1.00000e-02
 1.00000e-01  0.00000e+00  0.00000e+00
 1.00000e-01  1.00000e-02  0.00000e+00
 1.00000e-02  2.00000e-02  1.00000e-02
 0.00000e+00  2.00000e-02  1.00000e-02
 1.00000e-02  2.00000e-02  0.00000e+00
 0.00000e+00  2.00000e-02  0.00000e+00
 2.00000e-02  2.00000e-02  1.00000e-02
 2.00000e-02  2.00000e-02  0.00000e+00
 3.00000e-02  2.00000e-02  1.00000e-02
 3.00000e-02  2.00000e-02  0.00000e+00
 4.00000e-02  2.00000e-02  1.00000e-02
 4.00000e-02  2.00000e-02  0.00000e+00
 5.00000e-02  2.00000e-02  1.00000e-02
 5.00000e-02  2.00000e-02  0.00000e+00
 6.00000e-02  2.00000e-02  1.00000e-02
 6.00000e-02  2.00000e-02  0.00000e+00
 7.00000e-02  2.00000e-02  1.00000e-02
 7.00000e-02  2.00000e-02  0.00000e+00
 8.00000e-02  2.00000e-02  1.00000e-02
 8.00000e-02  2.00000e-02  0.00000e+00
 9.00000e-02  2.00000e-02  1.00000e-02
 9.00000e-02  2.00000e-02  0.00000e+00
 1.00000e-01  2.00000e-02  1.00000e-02
 1.00000e-01  2.00000e-02  0.00000e+00
 1.00000e-02  3.00000e-02  1.00000e-02
 0.00000e+00  3.00000e-02  1.00000e-02
 1.00000e-02  3.00000e-02  0.00000e+00
 0.00000e+00  3.00000e-02  0.00000e+00
 2.00000e-02  3.00000e-02  1.00000e-02
 2.00000e-02  3.00000e-02  0.00000e+00
 3.00000e-02  3.00000e-02  1.00000e-02
 3.00000e-02  3.00000e-02  0.00000e+00
 4.00000e-02  3.00000e-02  1.00000e-02
 4.00000e-02  3.00000e-02  0.00000e+00
 5.00000e-02  3.00000e-02  1.00000e-02
 5.00000e-02  3.00000e-02  0.00000e+00
 6.00000e-02  3.00000e-02  1.00000e-02
 6.00000e-02  3.00000e-02  0.00000e+00
 7.00000e-02  3.00000e-02  1.00000e-02
 7.00000e-02  3.00000e-02  0.00000e+00
 8.00000e-02  3.00000e-02  1.00000e-02
 8.00000e-02  3.00000e-02  0.00000e+00
 9.00000e-02  3.00000e-02  1.00000e-02
 9.00000e-02  3.00000e-02  0.00000e+00
 1.00000e-01  3.00000e-02  1.00000e-02
 1.00000e-01  3.00000e-02  0.00000e+00
 1.00000e-02  4.00000e-02  1.00000e-02
 0.00000e+00  4.00000e-02  1.00000e-02
 1.00000e-02  4.00000e-02  0.00000e+00
 0.00000e+00  4.00000e-02  0.00000e+00
 2.00000e-02  4.00000e-02  1.00000e-02
 2.00000e-02  4.00000e-02  0.00000e+00
 3.00000e-02  4.00000e-02  1.00000e-02
 3.00000e-02  4.00000e-02  0.00000e+00
 4.00000e-02  4.00000e-02  1.00000e-02
 4.00000e-02  4.00000e-02  0.00000e+00
 5.00000e-02  4.00000e-02  1.00000e-02
 5.00000e-02  4.00000e-02  0.00000e+00
 6.00000e-02  4.00000e-02  1.00000e-02
 6.00000e-02  4.00000e-02  0.00000e+00
 7.00000e-02  4.00000e-02  1.00000e-02
 7.00000e-02  4.00000e-02  0.00000e+00
 8.00000e-02  4.00000e-02  1.00000e-02
 8.00000e-02  4.00000e-02  0.00000e+00
 9.00000e-02  4.00000e-02  1.00000e-02
 9.00000e-02  4.00000e-02  0.00000e+00
 1.00000e-01  4.00000e-02  1.00000e-02
 1.00000e-01  4.00000e-02  0.00000e+00
 1.00000e-02  5.00000e-02  1.00000e-02
 0.00000e+00  5.00000e-02  1.00000e-02
 1.00000e-02  5.00000e-02  0.00000e+00
 0.00000e+00  5.00000e-02  0.00000e+00
 2.00000e-02  5.00000e-02  1.00000e-02
 2.00000e-02  5.00000e-02  0.00000e+00
 3.00000e-02  5.00000e-02  1.00000e-02
 3.00000e-02  5.00000e-02  0.00000e+00
 4.00000e-02  5.00000e-02  1.00000e-02
 4.00000e-02  5.00000e-02  0.00000e+00
 5.00000e-02  5.00000e-02  1.00000e-02
 5.00000e-02  5.00000e-02  0.00000e+00
 6.00000e-02  5.00000e-02  1.00000e-02
 6.00000e-02  5.00000e-02  0.00000e+00
 7.00000e-02  5.00000e-02  1.00000e-02
 7.00000e-02  5.00000e-02  0.00000e+00
 8.00000e-02  5.00000e-02  1.00000e-02
 8.00000e-02  5.00000e-02  0.00000e+00
 9.00000e-02  5.00000e-02  1.00000e-02
 9.00000e-02  5.00000e-02  0.00000e+00
 1.00000e-01  5.00000e-02  1.00000e-02
 1.00000e-01  5.00000e-02  0.00000e+00
 1.00000e-02  6.00000e-02  1.00000e-02
 0.00000e+00  6.00000e-02  1.00000e-02
 1.00000e-02  6.00000e-02  0.00000e+00
 0.00000e+00  6.00000e-02  0.00000e+00
 2.00000e-02  6.00000e-02  1.00000e-02
 2.00000e-02  6.00000e-02  0.00000e+00
 3.00000e-02  6.00000e-02  1.00000e-02
 3.00000e-02  6.00000e-02  0.00000e+00
 4.00000e-02  6.00000e-02  1.00000e-02
 4.00000e-02  6.00000e-02  0.00000e+00
 5.00000e-02  6.00000e-02  1.00000e-02
 5.00000e-02  6.00000e-02  0.00000e+00
 6.00000e-02  6.00000e-02  1.00000e-02
 6.00000e-02  6.00000e-02  0.00000e+00
 7.00000e-02  6.00000e-02  1.00000e-02
 7.00000e-02  6.00000e-02  0.00000e+00
 8.00000e-02  6.00000e-02  1.00000e-02
 8.00000e-02  6.00000e-02  0.00000e+00
 9.00000e-02  6.00000e-02  1.00000e-02
 9.00000e-02  6.00000e-02  0.00000e+00
 1.00000e-01  6.00000e-02  1.00000e-02
 1.00000e-01  6.00000e-02  0.00000e+00
 1.00000e-02  7.00000e-02  1.00000e-02
 0.00000e+00  7.00000e-02  1.00000e-02
 1.00000e-02  7.00000e-02  0.00000e+00
 0.00000e+00  7.00000e-02  0.00000e+00
 2.00000e-02  7.00000e-02  1.00000e-02
 2.00000e-02  7.00000e-02  0.00000e+00
 3.00000e-02  7.00000e-02  1.00000e-02
 3.00000e-02  7.00000e-02  0.00000e+00
 4.00000e-02  7.00000e-02  1.00000e-02
 4.00000e-02  7.00000e-02  0.00000e+00
 5.00000e-02  7.00000e-02  1.00000e-02
 5.00000e-02  7.00000e-02  0.00000e+00
 6.00000e-02  7.00000e-02  1.00000e-02
 6.00000e-02  7.00000e-02  0.00000e+00
 7.00000e-02  7.00000e-02  1.00000e-02
 7.00000e-02  7.00000e-02  0.00000e+00
 8.00000e-02  7.00000e-02  1.00000e-02
 8.00000e-02  7.00000e-02  0.00000e+00
 9.00000e-02  7.00000e-02  1.00000e-02
 9.00000e-02  7.00000e-02  0.00000e+00
 1.00000e-01  7.00000e-02  1.00000e-02
 1.00000e-01  7.00000e-02  0.00000e+00
 1.00000e-02  8.00000e-02  1.00000e-02
 0.00000e+00  8.00000e-02  1.00000e-02
 1.00000e-02  8.00000e-02  0.00000e+00
 0.00000e+00  8.00000e-02  0.00000e+00
 2.00000e-02  8.00000e-02  1.00000e-02
 2.00000e-02  8.00000e-02  0.00000e+00
 3.00000e-02  8.00000e-02  1.00000e-02
 3.00000e-02  8.00000e-02  0.00000e+00
 4.00000e-02  8.00000e-02  1.00000e-02
 4.00000e-02  8.00000e-02  0.00000e+00
 5.00000e-02  8.00000e-02  1.00000e-02
 5.00000e-02  8.00000e-02  0.00000e+00
 6.00000e-02  8.00000e-02  1.00000e-02
 6.00000e-02  8.00000e-02  0.00000e+00
 7.00000e-02  8.00000e-02  1.00000e-02
 7.00000e-02  8.00000e-02  0.00000e+00
 8.00000e-02  8.00000e-02  1.00000e-02
 8.00000e-02  8.00000e-02  0.00000e+00
 9.00000e-02  8.00000e-02  1.00000e-02
 9.00000e-02  8.00000e-02  0.00000e+00
 1.00000e-01  8.00000e-02  1.00000e-02
 1.00000e-01  8.00000e-02  0.00000e+00
 1.00000e-02  9.00000e-02  1.00000e-02
 0.00000e+00  9.00000e-02  1.00000e-02
 1.00000e-02  9.00000e-02  0.00000e+00
 0.00000e+00  9.00000e-02  0.00000e+00
 2.00000e-02  9.00000e-02  1.00000e-02
 2.00000e-02  9.00000e-02  0.00000e+00
 3.00000e-02  9.00000e-02  1.00000e-02
 3.00000e-02  9.00000e-02  0.00000e+00
 4.00000e-02  9.00000e-02  1.00000e-02
 4.00000e-02  9.00000e-02  0.00000e+00
 5.00000e-02  9.00000e-02  1.00000e-02
 5.00000e-02  9.00000e-02  0.00000e+00
 6.00000e-02  9.00000e-02  1.00000e-02
 6.00000e-02  9.00000e-02  0.00000e+00
 7.00000e-02  9.00000e-02  1.00000e-02
 7.00000e-02  9.00000e-02  0.00000e+00
 8.00000e-02  9.00000e-02  1.00000e-02
 8.00000e-02  9.00000e-02  0.00000e+00
 9.00000e-02  9.00000e-02  1.00000e-02
 9.00000e-02  9.00000e-02  0.00000e+00
 1.00000e-01  9.00000e-02  1.00000e-02
 1.00000e-01  9.00000e-02  0.00000e+00
 1.00000e-02  1.00000e-01  1.00000e-02
 0.00000e+00  1.00000e-01  1.00000e-02
 1.00000e-02  1.00000e-01  0.00000e+00
 0.00000e+00  1.00000e-01  0.00000e+00
 2.00000e-02  1.00000e-01  1.00000e-02
 2.00000e-02  1.00000e-01  0.00000e+00
 3.00000e-02  1.00000e-01  1.00000e-02
 3.00000e-02  1.00000e-01  0.00000e+00
 4.00000e-02  1.00000e-01  1.00000e-02
 4.00000e-02  1.00000e-01  0.00000e+00
 5.00000e-02  1.00000e-01  1.00000e-02
 5.00000e-02  1.00000e-01  0.00000e+00
 6.00000e-02  1.00000e-01  1.00000e-02
 6.00000e-02  1.00000e-01  0.00000e+00
 7.00000e-02  1.00000e-01  1.00000e-02
 7.00000e-02  1.00000e-01  0.00000e+00
 8.00000e-02  1.00000e-01  1.00000e-02
 8.00000e-02  1.00000e-01  0.00000e+00
 9.00000e-02  1.00000e-01  1.00000e-02
 9.00000e-02  1.00000e-01  0.00000e+00
 1.00000e-01  1.00000e-01  1.00000e-02
 1.00000e-01  1.00000e-01  0.00000e+00
 0.00000e+00  1.00000e-02  2.00000e-02
 1.00000e-02  1.00000e-02  2.00000e-02
 0.00000e+00  0.00000e+00  2.00000e-02
 1.00000e-02  0.00000e+00  2.00000e-02
 2.00000e-02  1.00000e-02  2.00000e-02
 2.00000e-02  0.00000e+00  2.00000e-02
 3.00000e-02  1.00000e-02  2.00000e-02
 3.00000e-02  0.00000e+00  2.00000e-02
 4.00000e-02  1.00000e-02  2.00000e-02
 4.00000e-02  0.00000e+00  2.00000e-02
 5.00000e-02  1.00000e-02  2.00000e-02
 5.00000e-02  0.00000e+00  2.00000e-02
[...]
CELL_DATA 1000
SCALARS Pressure double
LOOKUP_TABLE default
 0.00000e+00
 9.47684e+00
-6.34878e+00
-3.63154e+00
 3.90046e+00
 5.97984e+00
 5.22507e+00
 3.54233e+00
 2.08176e+00
 1.26789e+00
 8.01114e-01
-1.43646e+00
-6.51661e+00
-1.24166e+00
 2.74855e+00
 3.90939e+00
 3.13823e+00
 1.76167e+00
 5.71094e-01
-1.67106e-03
-2.69788e+00
-4.19913e+00
-6.65486e+00
-2.44040e+00
 4.63723e-02
 6.91297e-01
 9.54232e-02
-8.81160e-01
-1.68581e+00
-2.10922e+00
-6.27037e+00
-5.74406e+00
-8.52036e+00
-6.27963e+00
-4.54535e+00
-3.90328e+00
-3.96642e+00
-4.35525e+00
-4.69708e+00
-4.81075e+00
-1.09260e+01
-1.10323e+01
-1.40331e+01
-1.31192e+01
-1.14330e+01
-1.00044e+01
-9.12950e+00
-8.60218e+00
-8.22574e+00
-8.10028e+00
-1.55541e+01
-1.84147e+01
-2.19990e+01
-2.20178e+01
-1.98606e+01
-1.72146e+01
-1.49838e+01
-1.32376e+01
-1.21226e+01
-1.15633e+01
-1.77602e+01
-2.35735e+01
-3.05342e+01
-3.19942e+01
-2.90714e+01
-2.48242e+01
-2.09059e+01
-1.78620e+01
-1.58639e+01
-1.49759e+01
-1.58116e+01
-2.61204e+01
-4.01303e+01
-4.41611e+01
-3.92886e+01
-3.25057e+01
-2.64714e+01
-2.19321e+01
-1.90728e+01
-1.77590e+01
-9.89922e+00
-2.59371e+01
-5.39182e+01
-6.15592e+01
-5.07009e+01
-3.96394e+01
-3.09835e+01
-2.48988e+01
-2.12725e+01
-1.97047e+01
-8.07997e+00
-3.07338e+01
-7.77277e+01
-8.79879e+01
-6.14969e+01
-4.43817e+01
-3.33066e+01
-2.62638e+01
-2.22032e+01
-2.05330e+01
 2.97783e+01
 1.35575e+01
-1.22028e+01
-1.13751e+01
 2.72521e+00
 6.59067e+00
 5.75720e+00
 3.94014e+00
 2.34336e+00
 1.50889e+00
 7.55814e+00
-1.77585e+00
-1.19427e+01
-4.46453e+00
 2.66704e+00
 4.57606e+00
 3.74745e+00
 2.18361e+00
 8.93998e-01
 2.17425e-01
-1.44904e+00
-5.66055e+00
-9.89853e+00
-3.34197e+00
 4.91362e-01
 1.34865e+00
 6.50209e-01
-4.99179e-01
-1.42224e+00
-1.88054e+00
-6.35107e+00
-6.52482e+00
-9.54045e+00
-6.09763e+00
-3.90759e+00
-3.21236e+00
-3.49781e+00
-4.01773e+00
-4.43775e+00
-4.66374e+00
-1.10743e+01
-1.12974e+01
-1.41372e+01
-1.26458e+01
-1.07731e+01
-9.48382e+00
-8.75515e+00
-8.30216e+00
-8.06786e+00
-7.93821e+00
-1.57813e+01
-1.87166e+01
-2.19910e+01
-2.16802e+01
-1.94325e+01
-1.69052e+01
-1.47061e+01
-1.30419e+01
-1.19594e+01
-1.14756e+01
-1.80347e+01
-2.39323e+01
-3.05421e+01
-3.17999e+01
-2.88290e+01
-2.45912e+01
-2.07052e+01
-1.76834e+01
-1.57397e+01
-1.48444e+01
-1.62233e+01
-2.65487e+01
-4.02346e+01
-4.40395e+01
-3.91541e+01
-3.23842e+01
-2.63275e+01
-2.17831e+01
-1.89253e+01
-1.76837e+01
-1.02974e+01
-2.62120e+01
-5.44643e+01
-6.17186e+01
-5.08655e+01
-3.96354e+01
-3.08789e+01
-2.48091e+01
-2.11586e+01
-1.96195e+01
-8.20423e+00
-3.08696e+01
-7.91048e+01
-8.91304e+01
-6.17893e+01
-4.44113e+01
-3.32865e+01
-2.61686e+01
-2.21217e+01
-2.04620e+01
 3.64929e+01
 1.59732e+01
-1.83528e+01
-2.10283e+01
 8.67726e-02
 6.79993e+00
 6.59820e+00
 4.68316e+00
 2.92301e+00
 1.95049e+00
 1.05737e+01
-2.94499e+00
-1.82292e+01
-9.65316e+00
 1.64329e+00
 5.19074e+00
 4.60348e+00
 2.89927e+00
 1.40893e+00
 6.38856e-01
-1.27052e+00
-7.97828e+00
-1.44651e+01
-5.35182e+00
 6.39575e-01
 2.15680e+00
 1.44322e+00
 1.27010e-01
-9.59427e-01
-1.52033e+00
-6.82966e+00
-8.11724e+00
-1.16765e+01
-6.31407e+00
-3.20597e+00
-2.37091e+00
-2.81656e+00
-3.49546e+00
-4.07196e+00
-4.36382e+00
-1.14785e+01
-1.19128e+01
-1.46676e+01
-1.22908e+01
-1.00617e+01
-8.84620e+00
-8.22745e+00
-7.91924e+00
-7.77225e+00
-7.71669e+00
-1.60513e+01
-1.89579e+01
-2.20582e+01
-2.13715e+01
-1.90229e+01
-1.64721e+01
-1.43241e+01
-1.27283e+01
-1.17401e+01
-1.12975e+01
-1.83041e+01
-2.42545e+01
-3.06353e+01
-3.16634e+01
-2.85994e+01
-2.43011e+01
-2.03996e+01
-1.74317e+01
-1.55550e+01
-1.47270e+01
-1.62821e+01
-2.66925e+01
-4.04774e+01
-4.40799e+01
-3.91304e+01
-3.22259e+01
-2.61361e+01
-2.16203e+01
-1.87955e+01
-1.75920e+01
-1.01281e+01
-2.62523e+01
-5.48388e+01
-6.21740e+01
-5.09913e+01
-3.96277e+01
-3.08074e+01
-2.47157e+01
-2.10561e+01
-1.95176e+01
-8.12549e+00
-3.06324e+01
-7.96505e+01
-8.98910e+01
-6.19394e+01
-4.44451e+01
-3.32543e+01
-2.60966e+01
-2.20254e+01
-2.03841e+01
 3.87686e+01
 1.61268e+01
-2.25602e+01
-2.80056e+01
-2.81882e+00
 6.69050e+00
 7.31042e+00
 5.43520e+00
 3.53164e+00
 2.48471e+00
 1.10636e+01
-4.46477e+00
-2.27694e+01
-1.42919e+01
 2.37145e-01
 5.50153e+00
 5.39414e+00
 3.62285e+00
 1.99724e+00
 1.13289e+00
-1.87895e+00
-1.03719e+01
-1.83974e+01
-7.43386e+00
 3.84504e-01
 2.83644e+00
 2.21941e+00
 7.93811e-01
-4.42258e-01
-1.08458e+00
-7.71876e+00
-1.01343e+01
-1.37539e+01
-6.94427e+00
-2.70966e+00
-1.68569e+00
-2.10964e+00
-2.92578e+00
-3.62748e+00
-3.99742e+00
-1.20420e+01
-1.26186e+01
-1.53413e+01
-1.20966e+01
-9.48816e+00
-8.20377e+00
-7.63210e+00
-7.42921e+00
-7.40546e+00
-7.41787e+00
-1.63627e+01
-1.90300e+01
-2.21920e+01
-2.10717e+01
-1.85262e+01
-1.59016e+01
-1.38053e+01
-1.23331e+01
-1.14505e+01
-1.10744e+01
-1.85807e+01
-2.45054e+01
-3.07804e+01
-3.14778e+01
-2.82129e+01
-2.38809e+01
-1.99970e+01
-1.71266e+01
-1.53420e+01
-1.45839e+01
-1.64931e+01
-2.68641e+01
-4.05292e+01
-4.39453e+01
-3.88785e+01
-3.19271e+01
-2.58823e+01
-2.14091e+01
-1.86589e+01
-1.74311e+01
-1.03221e+01
-2.63039e+01
-5.46650e+01
-6.19468e+01
-5.07665e+01
-3.94013e+01
-3.06688e+01
-2.45927e+01
-2.09347e+01
-1.94052e+01
-8.46134e+00
-3.07669e+01
-7.89862e+01
-8.93204e+01
-6.16225e+01
-4.42685e+01
-3.31326e+01
-2.59863e+01
-2.19328e+01
-2.02841e+01
 3.90866e+01
 1.60526e+01
-2.51677e+01
-3.24273e+01
-4.99371e+00
 6.45967e+00
 7.87336e+00
 6.08321e+00
 4.10337e+00
 2.97034e+00
 1.09322e+01
-5.60406e+00
-2.56617e+01
-1.74832e+01
-9.57777e-01
 5.72710e+00
 6.03471e+00
 4.26132e+00
 2.51486e+00
 1.58292e+00
-2.66651e+00
-1.21816e+01
-2.10352e+01
-9.27546e+00
 2.12539e-01
 3.32042e+00
 2.87124e+00
 1.35331e+00
 2.64037e-02
-6.80976e-01
-8.60560e+00
-1.17474e+01
-1.55237e+01
-7.50864e+00
-2.52705e+00
-1.11323e+00
-1.49322e+00
-2.39514e+00
-3.21095e+00
-3.64275e+00
-1.26276e+01
-1.33257e+01
-1.60431e+01
-1.20701e+01
-9.07232e+00
-7.54601e+00
-7.02240e+00
-6.93151e+00
-7.03378e+00
-7.11122e+00
-1.67122e+01
-1.91953e+01
-2.24442e+01
-2.08582e+01
-1.79807e+01
-1.53126e+01
-1.32614e+01
-1.19256e+01
-1.11467e+01
-1.08240e+01
-1.89204e+01
-2.47804e+01
-3.09032e+01
-3.12817e+01
-2.78220e+01
-2.34517e+01
-1.96209e+01
-1.68235e+01
-1.51275e+01
-1.43653e+01
-1.68193e+01
-2.70585e+01
-4.05149e+01
-4.37095e+01
-3.85685e+01
-3.15960e+01
-2.56002e+01
-2.11994e+01
-1.84985e+01
-1.72580e+01
-1.07109e+01
-2.64465e+01
-5.43553e+01
-6.14478e+01
-5.03306e+01
-3.90506e+01
-3.04005e+01
-2.44341e+01
-2.08016e+01
-1.92911e+01
-9.05306e+00
-3.10889e+01
-7.81201e+01
-8.82015e+01
-6.09670e+01
-4.38650e+01
-3.28847e+01
-2.58308e+01
-2.18045e+01
-2.01817e+01
 3.90710e+01
 1.55001e+01
-2.67139e+01
-3.49464e+01
-6.44949e+00
 6.30705e+00
 8.24300e+00
 6.56077e+00
 4.53539e+00
 3.37791e+00
 1.04211e+01
-6.56812e+00
-2.75000e+01
-1.94638e+01
-1.70994e+00
 5.84531e+00
 6.46497e+00
 4.71310e+00
 2.93248e+00
 1.96483e+00
-3.46065e+00
-1.35691e+01
-2.27836e+01
-1.03443e+01
-1.37015e-02
 3.60561e+00
 3.31400e+00
 1.80772e+00
 4.11819e-01
-3.31488e-01
-9.44422e+00
-1.30901e+01
-1.67260e+01
-8.09255e+00
-2.47353e+00
-6.67952e-01
-9.80403e-01
-1.95153e+00
-2.84645e+00
-3.32023e+00
-1.32181e+01
-1.39899e+01
-1.66986e+01
-1.21869e+01
-8.67829e+00
-6.99876e+00
-6.45329e+00
-6.49532e+00
-6.68711e+00
-6.81385e+00
-1.71112e+01
-1.94366e+01
-2.27154e+01
-2.07096e+01
-1.75348e+01
-1.47940e+01
-1.28092e+01
-1.15338e+01
-1.08461e+01
-1.05504e+01
-1.93111e+01
-2.50797e+01
-3.10413e+01
-3.10980e+01
-2.75008e+01
-2.30507e+01
-1.92467e+01
-1.65246e+01
-1.48807e+01
-1.41122e+01
-1.72396e+01
-2.73071e+01
-4.04643e+01
-4.34016e+01
-3.81620e+01
-3.11713e+01
-2.52057e+01
-2.09584e+01
-1.82810e+01
-1.71083e+01
-1.12494e+01
-2.66983e+01
-5.40351e+01
-6.07643e+01
-4.96820e+01
-3.85076e+01
-3.00194e+01
-2.41862e+01
-2.06416e+01
-1.91530e+01
-9.83425e+00
-3.15826e+01
-7.73115e+01
-8.68341e+01
-6.00683e+01
-4.32639e+01
-3.25074e+01
-2.55889e+01
-2.16499e+01
-2.00415e+01
 3.87718e+01
 1.53328e+01
-2.74588e+01
-3.62614e+01
-7.30047e+00
 6.09806e+00
 8.42149e+00
 6.85640e+00
 4.84198e+00
 3.66475e+00
 1.00610e+01
-7.09835e+00
-2.83698e+01
-2.05502e+01
-2.30259e+00
 5.79367e+00
 6.68147e+00
 5.02563e+00
 3.22062e+00
 2.23568e+00
-4.04378e+00
-1.43992e+01
-2.37374e+01
-1.11989e+01
-3.02846e-01
 3.72405e+00
 3.61822e+00
 2.11745e+00
 6.88822e-01
-7.44919e-02
-1.00734e+01
-1.39343e+01
-1.76186e+01
-8.54674e+00
-2.44422e+00
-3.66139e-01
-6.17415e-01
-1.63446e+00
-2.56812e+00
-3.07336e+00
-1.37162e+01
-1.45294e+01
-1.72704e+01
-1.22631e+01
-8.42450e+00
-6.59746e+00
-6.08348e+00
-6.17387e+00
-6.42402e+00
-6.57637e+00
-1.75137e+01
-1.97141e+01
-2.28951e+01
-2.05948e+01
-1.72417e+01
-1.44380e+01
-1.24570e+01
-1.12411e+01
-1.05963e+01
-1.03203e+01
-1.97009e+01
-2.53504e+01
-3.10538e+01
-3.08762e+01
-2.71729e+01
-2.26615e+01
-1.88813e+01
-1.62393e+01
-1.46299e+01
-1.39084e+01
-1.76909e+01
-2.75589e+01
-4.03486e+01
-4.29731e+01
-3.76287e+01
-3.06583e+01
-2.47969e+01
-2.06411e+01
-1.80467e+01
-1.69275e+01
-1.18772e+01
-2.71004e+01
-5.37485e+01
-5.99542e+01
-4.88813e+01
-3.78427e+01
-2.95418e+01
-2.38481e+01
-2.04256e+01
-1.89787e+01
-1.07475e+01
-3.22424e+01
-7.66892e+01
-8.54116e+01
-5.89926e+01
-4.24906e+01
-3.19789e+01
-2.52530e+01
-2.14429e+01
-1.98958e+01
 3.87788e+01
 1.52660e+01
-2.75752e+01
-3.68765e+01
-7.96995e+00
 5.82709e+00
 8.43559e+00
 7.00560e+00
 5.00404e+00
 3.83858e+00
 9.86791e+00
-7.27048e+00
-2.87611e+01
-2.13245e+01
-2.81189e+00
 5.62411e+00
 6.75807e+00
 5.17936e+00
 3.38888e+00
 2.40976e+00
-4.38213e+00
-1.48727e+01
-2.43427e+01
-1.17356e+01
-6.21245e-01
 3.70906e+00
 3.77675e+00
 2.30757e+00
 8.79376e-01
 1.06136e-01
-1.05013e+01
-1.44948e+01
-1.81805e+01
-8.89607e+00
-2.46396e+00
-2.11925e-01
-4.15251e-01
-1.41291e+00
-2.37275e+00
-2.88509e+00
-1.41262e+01
-1.49751e+01
-1.76161e+01
-1.23542e+01
-8.32242e+00
-6.41526e+00
-5.87846e+00
-5.96474e+00
-6.23341e+00
-6.39185e+00
-1.78856e+01
-1.99593e+01
-2.30140e+01
-2.05073e+01
-1.71084e+01
-1.42083e+01
-1.21928e+01
-1.10265e+01
-1.03988e+01
-1.01309e+01
-2.00680e+01
-2.55679e+01
-3.10124e+01
-3.06398e+01
-2.67808e+01
-2.22801e+01
-1.85547e+01
-1.59681e+01
-1.44108e+01
-1.37262e+01
-1.81442e+01
-2.78644e+01
-4.02107e+01
-4.24769e+01
-3.70163e+01
-3.01003e+01
-2.43914e+01
-2.03069e+01
-1.78379e+01
-1.67327e+01
-1.25824e+01
-2.76137e+01
-5.36635e+01
-5.91976e+01
-4.80096e+01
-3.71282e+01
-2.90049e+01
-2.34705e+01
-2.01962e+01
-1.88178e+01
-1.17498e+01
-3.30066e+01
-7.62743e+01
-8.40176e+01
-5.78306e+01
-4.16383e+01
-3.13638e+01
-2.48889e+01
-2.12429e+01
-1.97458e+01
 3.88966e+01
 1.56781e+01
-2.72444e+01
-3.71640e+01
-8.41692e+00
 5.57247e+00
 8.35812e+00
 7.01358e+00
 5.07276e+00
 3.93108e+00
 1.00139e+01
-6.99361e+00
-2.86659e+01
-2.16549e+01
-3.24176e+00
 5.38401e+00
 6.70451e+00
 5.21964e+00
 3.47765e+00
 2.50276e+00
-4.41960e+00
-1.49077e+01
-2.44943e+01
-1.22098e+01
-8.83372e-01
 3.65684e+00
 3.81387e+00
 2.41135e+00
 9.86507e-01
 2.30852e-01
-1.06935e+01
-1.46823e+01
-1.84731e+01
-9.09630e+00
-2.53423e+00
-2.25141e-01
-3.27831e-01
-1.27919e+00
-2.23894e+00
-2.75432e+00
-1.43741e+01
-1.52386e+01
-1.78877e+01
-1.24310e+01
-8.37188e+00
-6.36705e+00
-5.73049e+00
-5.83656e+00
-6.10263e+00
-6.24378e+00
-1.81853e+01
-2.01491e+01
-2.30330e+01
-2.04461e+01
-1.69373e+01
-1.40002e+01
-1.20316e+01
-1.08865e+01
-1.02557e+01
-9.99583e+00
-2.03343e+01
-2.57811e+01
-3.09702e+01
-3.03473e+01
-2.64155e+01
-2.19340e+01
-1.83199e+01
-1.57839e+01
-1.42668e+01
-1.35756e+01
-1.85955e+01
-2.81895e+01
-4.01665e+01
-4.20651e+01
-3.64340e+01
-2.95844e+01
-2.40173e+01
-2.00503e+01
-1.76562e+01
-1.65927e+01
-1.32778e+01
-2.82551e+01
-5.37562e+01
-5.85542e+01
-4.71567e+01
-3.64373e+01
-2.84828e+01
-2.31630e+01
-2.00243e+01
-1.86896e+01
-1.27695e+01
-3.36341e+01
-7.57743e+01
-8.27386e+01
-5.66849e+01
-4.07974e+01
-3.08350e+01
-2.45949e+01
-2.11060e+01
-1.96354e+01
 3.92383e+01
 1.62742e+01
-2.71122e+01
-3.74073e+01
-8.71274e+00
 5.31940e+00
 8.25017e+00
 7.00180e+00
 5.10700e+00
 3.96565e+00
 1.03267e+01
-6.78449e+00
-2.85170e+01
-2.21258e+01
-3.60498e+00
 5.24774e+00
 6.65395e+00
 5.23809e+00
 3.51199e+00
 2.60641e+00
-4.39944e+00
-1.48894e+01
-2.47206e+01
-1.25317e+01
-9.56575e-01
 3.56493e+00
 3.81099e+00
 2.46224e+00
 1.08931e+00
 3.10049e-01
-1.07070e+01
-1.48392e+01
-1.88336e+01
-9.24605e+00
-2.68597e+00
-2.52444e-01
-2.34604e-01
-1.17943e+00
-2.16739e+00
-2.60769e+00
-1.46378e+01
-1.55109e+01
-1.80463e+01
-1.25616e+01
-8.38067e+00
-6.29913e+00
-5.66954e+00
-5.79255e+00
-5.98751e+00
-6.17968e+00
-1.82909e+01
-2.02567e+01
-2.31435e+01
-2.03940e+01
-1.68622e+01
-1.38936e+01
-1.19909e+01
-1.08072e+01
-1.01934e+01
-9.87586e+00
-2.06165e+01
-2.59701e+01
-3.09223e+01
-3.02471e+01
-2.62131e+01
-2.17349e+01
-1.82056e+01
-1.56894e+01
-1.41912e+01
-1.35114e+01
-1.87826e+01
-2.84062e+01
-4.04475e+01
-4.19187e+01
-3.60204e+01
-2.92841e+01
-2.38342e+01
-1.99276e+01
-1.75680e+01
-1.64873e+01
-1.39282e+01
-2.86861e+01
-5.36212e+01
-5.81845e+01
-4.65756e+01
-3.60853e+01
-2.82453e+01
-2.30122e+01
-1.99742e+01
-1.86258e+01
-1.29736e+01
-3.28349e+01
-7.56488e+01
-8.19971e+01
-5.61300e+01
-4.04457e+01
-3.05710e+01
-2.45370e+01
-2.10312e+01
-1.95539e+01
SCALARS VOF double
LOOKUP_TABLE default
 1.11921e+00
 1.37003e-01
 5.28886e-02
 4.75868e-02
 4.25719e-02
 3.67271e-02
 2.96943e-02
 2.21245e-02
 1.43048e-02
 6.71485e-03
 1.00225e+00
 2.38322e-01
 7.12705e-02
 5.06645e-02
 4.16629e-02
 3.43952e-02
 2.72008e-02
 1.98659e-02
 1.25889e-02
 5.69227e-03
 9.93868e-01
 3.54798e-01
 9.28610e-02
 5.66319e-02
 4.19241e-02
 3.25349e-02
 2.47464e-02
 1.74402e-02
 1.06365e-02
 4.68602e-03
 9.98423e-01
 5.66682e-01
 1.08169e-01
 5.77589e-02
 3.96453e-02
 2.93340e-02
 2.13322e-02
 1.43393e-02
 8.34436e-03
 3.52452e-03
 9.99427e-01
 1.02300e+00
 9.88705e-02
 5.12650e-02
 3.43616e-02
 2.44766e-02
 1.69113e-02
 1.08032e-02
 6.03785e-03
 2.53735e-03
 9.99653e-01
 1.11477e+00
 8.82904e-02
 4.32177e-02
 2.80919e-02
 1.90946e-02
 1.25924e-02
 7.70852e-03
 4.21556e-03
 1.81285e-03
 9.99747e-01
 1.20535e+00
 7.72341e-02
 3.42485e-02
 2.13602e-02
 1.38097e-02
 8.65235e-03
 5.10154e-03
 2.76964e-03
 1.27044e-03
 1.00100e+00
 1.31205e+00
 6.70529e-02
 2.50526e-02
 1.46461e-02
 8.89373e-03
 5.28536e-03
 3.03594e-03
 1.66390e-03
 8.29514e-04
 1.02046e+00
 1.51271e+00
 6.28426e-02
 1.56565e-02
 8.28260e-03
 4.69022e-03
 2.66663e-03
 1.51083e-03
 8.54223e-04
 4.80582e-04
 9.99327e-01
 1.68451e+00
 5.34349e-02
 5.74812e-03
 2.92866e-03
 1.58449e-03
 8.76204e-04
 5.01611e-04
 3.04656e-04
 1.97142e-04
 1.03297e+00
 9.53783e-02
 3.70817e-02
 3.74890e-02
 3.53649e-02
 3.11247e-02
 2.56168e-02
 1.94047e-02
 1.27955e-02
 5.98486e-03
 9.94007e-01
 1.78473e-01
 5.38430e-02
 4.15612e-02
 3.52728e-02
 2.95912e-02
 2.37194e-02
 1.75486e-02
 1.11828e-02
 5.09480e-03
 1.00179e+00
 2.96223e-01
 7.62145e-02
 4.83586e-02
 3.63326e-02
 2.84517e-02
 2.17337e-02
 1.54428e-02
 9.47597e-03
 4.14775e-03
 1.00031e+00
 5.04556e-01
 9.52702e-02
 5.11478e-02
 3.50686e-02
 2.58972e-02
 1.88105e-02
 1.26698e-02
 7.38527e-03
 3.15245e-03
 9.99934e-01
 1.01237e+00
 8.74489e-02
 4.56478e-02
 3.03711e-02
 2.14798e-02
 1.48569e-02
 9.50823e-03
 5.34875e-03
 2.24518e-03
 9.99618e-01
 1.09654e+00
 7.83167e-02
 3.84493e-02
 2.47625e-02
 1.67852e-02
 1.10502e-02
 6.78180e-03
 3.71989e-03
 1.60665e-03
 9.99532e-01
 1.17842e+00
 6.85356e-02
 3.04428e-02
 1.88381e-02
 1.21416e-02
 7.60413e-03
 4.49916e-03
 2.44433e-03
 1.11722e-03
 1.00054e+00
 1.27276e+00
 5.95024e-02
 2.22406e-02
 1.29154e-02
 7.81392e-03
 4.65107e-03
 2.66746e-03
 1.45615e-03
 7.29245e-04
 1.01957e+00
 1.45054e+00
 5.57586e-02
 1.38651e-02
 7.28052e-03
 4.11020e-03
 2.33423e-03
 1.31794e-03
 7.45831e-04
 4.21029e-04
 9.97414e-01
 1.59795e+00
 4.75095e-02
 5.06945e-03
 2.56152e-03
 1.38239e-03
 7.63506e-04
 4.37507e-04
 2.66572e-04
 1.74281e-04
 1.00590e+00
 7.98668e-02
 3.07071e-02
 3.17509e-02
 3.08161e-02
 2.78677e-02
 2.35922e-02
 1.83408e-02
 1.23214e-02
 5.90985e-03
 9.85672e-01
 1.46407e-01
 4.50680e-02
 3.61239e-02
 3.14428e-02
 2.70091e-02
 2.21167e-02
 1.67121e-02
 1.08534e-02
 5.04533e-03
 1.00157e+00
 2.50562e-01
 6.59741e-02
 4.33336e-02
 3.32338e-02
 2.64722e-02
 2.05651e-02
 1.48328e-02
 9.25312e-03
 4.15009e-03
 1.00072e+00
 4.40803e-01
 8.64207e-02
 4.74668e-02
 3.28589e-02
 2.44403e-02
 1.79651e-02
 1.22793e-02
 7.32119e-03
 3.18747e-03
 1.00013e+00
 9.54478e-01
 8.30915e-02
 4.31111e-02
 2.86715e-02
 2.04452e-02
 1.43265e-02
 9.35472e-03
 5.34496e-03
 2.28323e-03
 9.99611e-01
 1.08719e+00
 7.49181e-02
 3.66156e-02
 2.36102e-02
 1.61724e-02
 1.08261e-02
 6.76729e-03
 3.75684e-03
 1.64363e-03
 9.99474e-01
 1.16902e+00
 6.58834e-02
 2.92253e-02
 1.81708e-02
 1.18550e-02
 7.55576e-03
 4.53179e-03
 2.48864e-03
 1.15238e-03
 1.00054e+00
 1.26226e+00
 5.74669e-02
 2.15215e-02
 1.25834e-02
 7.71423e-03
 4.66077e-03
 2.70603e-03
 1.49523e-03
 7.58670e-04
 1.01948e+00
 1.43694e+00
 5.41260e-02
 1.35329e-02
 7.16935e-03
 4.10340e-03
 2.36095e-03
 1.34999e-03
 7.74279e-04
 4.42755e-04
 9.97148e-01
 1.58318e+00
 4.64444e-02
 5.00320e-03
 2.55787e-03
 1.40046e-03
 7.84417e-04
 4.55629e-04
 2.81356e-04
 1.85875e-04
 1.01116e+00
 7.34511e-02
 2.84736e-02
 2.94586e-02
 2.88573e-02
 2.65936e-02
 2.29750e-02
 1.82079e-02
 1.24526e-02
 6.14645e-03
 9.84726e-01
 1.31528e-01
 4.14703e-02
 3.37623e-02
 2.98074e-02
 2.60849e-02
 2.17762e-02
 1.67210e-02
 1.10853e-02
 5.29434e-03
 1.00128e+00
 2.24415e-01
 6.09396e-02
 4.09976e-02
 3.19910e-02
 2.58707e-02
 2.04208e-02
 1.49974e-02
 9.57228e-03
 4.42034e-03
 1.00069e+00
 3.94586e-01
 8.14472e-02
 4.58948e-02
 3.21397e-02
 2.41672e-02
 1.80243e-02
 1.26628e-02
 7.72785e-03
 3.44119e-03
 1.00013e+00
 8.44023e-01
 8.45867e-02
 4.27570e-02
 2.85615e-02
 2.06264e-02
 1.47362e-02
 9.81233e-03
 5.70275e-03
 2.48730e-03
 9.99625e-01
 1.08319e+00
 7.64228e-02
 3.66868e-02
 2.38558e-02
 1.65709e-02
 1.13224e-02
 7.17872e-03
 4.05248e-03
 1.80323e-03
 9.99535e-01
 1.17016e+00
 6.74085e-02
 2.95867e-02
 1.85813e-02
 1.22959e-02
 7.96495e-03
 4.85310e-03
 2.70731e-03
 1.27594e-03
 1.00066e+00
 1.26842e+00
 5.89988e-02
 2.20007e-02
 1.30039e-02
 8.09128e-03
 4.95686e-03
 2.92322e-03
 1.64852e-03
 8.48916e-04
 1.01971e+00
 1.45010e+00
 5.57717e-02
 1.39841e-02
 7.50966e-03
 4.36276e-03
 2.54844e-03
 1.48360e-03
 8.67606e-04
 5.02301e-04
 9.97648e-01
 1.60579e+00
 4.81098e-02
 5.24368e-03
 2.72678e-03
 1.51844e-03
 8.65978e-04
 5.12939e-04
 3.21746e-04
 2.13648e-04
 1.01271e+00
 7.04964e-02
 2.75959e-02
 2.85121e-02
 2.80847e-02
 2.61977e-02
 2.29200e-02
 1.83838e-02
 1.27739e-02
 6.46845e-03
 9.84848e-01
 1.24139e-01
 3.98941e-02
 3.27631e-02
 2.92086e-02
 2.58508e-02
 2.18445e-02
 1.69916e-02
 1.14606e-02
 5.62750e-03
 1.00120e+00
 2.09689e-01
 5.84695e-02
 3.99687e-02
 3.15262e-02
 2.57443e-02
 2.05721e-02
 1.54145e-02
 1.00418e-02
 4.75418e-03
 1.00064e+00
 3.66144e-01
 7.87389e-02
 4.52469e-02
 3.19686e-02
 2.42995e-02
 1.84641e-02
 1.32471e-02
 8.22237e-03
 3.75157e-03
 1.00012e+00
 7.67135e-01
 8.54859e-02
 4.30870e-02
 2.89766e-02
 2.11240e-02
 1.53556e-02
 1.04034e-02
 6.16032e-03
 2.73473e-03
 9.99559e-01
 1.07815e+00
 7.74809e-02
 3.73115e-02
 2.44430e-02
 1.71113e-02
 1.18495e-02
 7.65821e-03
 4.39907e-03
 1.99183e-03
 9.99549e-01
 1.17090e+00
 6.86789e-02
 3.03023e-02
 1.91422e-02
 1.27737e-02
 8.37943e-03
 5.20523e-03
 2.96382e-03
 1.41737e-03
 1.00073e+00
 1.27382e+00
 6.03867e-02
 2.26882e-02
 1.35122e-02
 8.49151e-03
 5.27850e-03
 3.17911e-03
 1.82608e-03
 9.50675e-04
 1.01989e+00
 1.46245e+00
 5.73571e-02
 1.45505e-02
 7.89781e-03
 4.64561e-03
 2.76181e-03
 1.64165e-03
 9.74772e-04
 5.67924e-04
 9.98093e-01
 1.62804e+00
 4.97686e-02
 5.52196e-03
 2.91307e-03
 1.64896e-03
 9.59030e-04
 5.77919e-04
 3.65599e-04
 2.44574e-04
 1.01328e+00
 6.89830e-02
 2.72063e-02
 2.81246e-02
 2.78256e-02
 2.61052e-02
 2.29909e-02
 1.85927e-02
 1.30687e-02
 6.77428e-03
 9.84988e-01
 1.20204e-01
 3.91693e-02
 3.23711e-02
 2.90267e-02
 2.58291e-02
 2.19559e-02
 1.72478e-02
 1.17973e-02
 5.93495e-03
 1.00122e+00
 2.01468e-01
 5.72565e-02
 3.95485e-02
 3.13738e-02
 2.58104e-02
 2.08754e-02
 1.58184e-02
 1.04428e-02
 5.05656e-03