# vtk DataFile Version 2.0
TestSpecies
ASCII
DATASET UNSTRUCTURED_GRID
POINTS 242 double
 1.00000e+00 -4.00000e+00  0.00000e+00
 0.00000e+00 -4.00000e+00  0.00000e+00
 0.00000e+00 -5.00000e+00  0.00000e+00
 1.00000e+00 -5.00000e+00  0.00000e+00
 1.00000e+00 -3.00000e+00  0.00000e+00
 0.00000e+00 -3.00000e+00  0.00000e+00
 1.00000e+00 -2.00000e+00  0.00000e+00
 0.00000e+00 -2.00000e+00  0.00000e+00
 1.00000e+00 -1.00000e+00  0.00000e+00
 0.00000e+00 -1.00000e+00  0.00000e+00
 1.00000e+00  0.00000e+00  0.00000e+00
 0.00000e+00  0.00000e+00  0.00000e+00
 1.00000e+00  1.00000e+00  0.00000e+00
 0.00000e+00  1.00000e+00  0.00000e+00
 1.00000e+00  2.00000e+00  0.00000e+00
 0.00000e+00  2.00000e+00  0.00000e+00
 1.00000e+00  3.00000e+00  0.00000e+00
 0.00000e+00  3.00000e+00  0.00000e+00
 1.00000e+00  4.00000e+00  0.00000e+00
 0.00000e+00  4.00000e+00  0.00000e+00
 1.00000e+00  5.00000e+00  0.00000e+00
 0.00000e+00  5.00000e+00  0.00000e+00
 2.00000e+00 -5.00000e+00  0.00000e+00
 2.00000e+00 -4.00000e+00  0.00000e+00
 2.00000e+00 -3.00000e+00  0.00000e+00
 2.00000e+00 -2.00000e+00  0.00000e+00
 2.00000e+00 -1.00000e+00  0.00000e+00
 2.00000e+00  0.00000e+00  0.00000e+00
 2.00000e+00  1.00000e+00  0.00000e+00
 2.00000e+00  2.00000e+00  0.00000e+00
 2.00000e+00  3.00000e+00  0.00000e+00
 2.00000e+00  4.00000e+00  0.00000e+00
 2.00000e+00  5.00000e+00  0.00000e+00
 3.00000e+00 -5.00000e+00  0.00000e+00
 3.00000e+00 -4.00000e+00  0.00000e+00
 3.00000e+00 -3.00000e+00  0.00000e+00
 3.00000e+00 -2.00000e+00  0.00000e+00
 3.00000e+00 -1.00000e+00  0.00000e+00
 3.00000e+00  0.00000e+00  0.00000e+00
 3.00000e+00  1.00000e+00  0.00000e+00
 3.00000e+00  2.00000e+00  0.00000e+00
 3.00000e+00  3.00000e+00  0.00000e+00
 3.00000e+00  4.00000e+00  0.00000e+00
 3.00000e+00  5.00000e+00  0.00000e+00
 4.00000e+00 -5.00000e+00  0.00000e+00
 4.00000e+00 -4.00000e+00  0.00000e+00
 4.00000e+00 -3.00000e+00  0.00000e+00
 4.00000e+00 -2.00000e+00  0.00000e+00
 4.00000e+00 -1.00000e+00  0.00000e+00
 4.00000e+00  0.00000e+00  0.00000e+00
 4.00000e+00  1.00000e+00  0.00000e+00
 4.00000e+00  2.00000e+00  0.00000e+00
 4.00000e+00  3.00000e+00  0.00000e+00
 4.00000e+00  4.00000e+00  0.00000e+00
 4.00000e+00  5.00000e+00  0.00000e+00
 5.00000e+00 -5.00000e+00  0.00000e+00
 5.00000e+00 -4.00000e+00  0.00000e+00
 5.00000e+00 -3.00000e+00  0.00000e+00
 5.00000e+00 -2.00000e+00  0.00000e+00
 5.00000e+00 -1.00000e+00  0.00000e+00
 5.00000e+00  0.00000e+00  0.00000e+00
 5.00000e+00  1.00000e+00  0.00000e+00
 5.00000e+00  2.00000e+00  0.00000e+00
 5.00000e+00  3.00000e+00  0.00000e+00
 5.00000e+00  4.00000e+00  0.00000e+00
 5.00000e+00  5.00000e+00  0.00000e+00
 6.00000e+00 -5.00000e+00  0.00000e+00
 6.00000e+00 -4.00000e+00  0.00000e+00
 6.00000e+00 -3.00000e+00  0.00000e+00
 6.00000e+00 -2.00000e+00  0.00000e+00
 6.00000e+00 -1.00000e+00  0.00000e+00
 6.00000e+00  0.00000e+00  0.00000e+00
 6.00000e+00  1.00000e+00  0.00000e+00
 6.00000e+00  2.00000e+00  0.00000e+00
 6.00000e+00  3.00000e+00  0.00000e+00
 6.00000e+00  4.00000e+00  0.00000e+00
 6.00000e+00  5.00000e+00  0.00000e+00
 7.00000e+00 -5.00000e+00  0.00000e+00
 7.00000e+00 -4.00000e+00  0.00000e+00
 7.00000e+00 -3.00000e+00  0.00000e+00
 7.00000e+00 -2.00000e+00  0.00000e+00
 7.00000e+00 -1.00000e+00  0.00000e+00
 7.00000e+00  0.00000e+00  0.00000e+00
 7.00000e+00  1.00000e+00  0.00000e+00
 7.00000e+00  2.00000e+00  0.00000e+00
 7.00000e+00  3.00000e+00  0.00000e+00
 7.00000e+00  4.00000e+00  0.00000e+00
 7.00000e+00  5.00000e+00  0.00000e+00
 8.00000e+00 -5.00000e+00  0.00000e+00
 8.00000e+00 -4.00000e+00  0.00000e+00
 8.00000e+00 -3.00000e+00  0.00000e+00
 8.00000e+00 -2.00000e+00  0.00000e+00
 8.00000e+00 -1.00000e+00  0.00000e+00
 8.00000e+00  0.00000e+00  0.00000e+00
 8.00000e+00  1.00000e+00  0.00000e+00
 8.00000e+00  2.00000e+00  0.00000e+00
 8.00000e+00  3.00000e+00  0.00000e+00
 8.00000e+00  4.00000e+00  0.00000e+00
 8.00000e+00  5.00000e+00  0.00000e+00
 9.00000e+00 -5.00000e+00  0.00000e+00
 9.00000e+00 -4.00000e+00  0.00000e+00
 9.00000e+00 -3.00000e+00  0.00000e+00
 9.00000e+00 -2.00000e+00  0.00000e+00
 9.00000e+00 -1.00000e+00  0.00000e+00
 9.00000e+00  0.00000e+00  0.00000e+00
 9.00000e+00  1.00000e+00  0.00000e+00
 9.00000e+00  2.00000e+00  0.00000e+00
 9.00000e+00  3.00000e+00  0.00000e+00
 9.00000e+00  4.00000e+00  0.00000e+00
 9.00000e+00  5.00000e+00  0.00000e+00
 1.00000e+01 -5.00000e+00  0.00000e+00
 1.00000e+01 -4.00000e+00  0.00000e+00
 1.00000e+01 -3.00000e+00  0.00000e+00
 1.00000e+01 -2.00000e+00  0.00000e+00
 1.00000e+01 -1.00000e+00  0.00000e+00
 1.00000e+01  0.00000e+00  0.00000e+00
 1.00000e+01  1.00000e+00  0.00000e+00
 1.00000e+01  2.00000e+00  0.00000e+00
 1.00000e+01  3.00000e+00  0.00000e+00
 1.00000e+01  4.00000e+00  0.00000e+00
 1.00000e+01  5.00000e+00  0.00000e+00
-1.00000e+00 -4.00000e+00  0.00000e+00
-1.00000e+00 -5.00000e+00  0.00000e+00
 0.00000e+00 -5.00000e+00  0.00000e+00
 0.00000e+00 -4.00000e+00  0.00000e+00
-2.00000e+00 -4.00000e+00  0.00000e+00
-2.00000e+00 -5.00000e+00  0.00000e+00
-3.00000e+00 -4.00000e+00  0.00000e+00
-3.00000e+00 -5.00000e+00  0.00000e+00
-4.00000e+00 -4.00000e+00  0.00000e+00
-4.00000e+00 -5.00000e+00  0.00000e+00
-5.00000e+00 -4.00000e+00  0.00000e+00
-5.00000e+00 -5.00000e+00  0.00000e+00
-6.00000e+00 -4.00000e+00  0.00000e+00
-6.00000e+00 -5.00000e+00  0.00000e+00
-7.00000e+00 -4.00000e+00  0.00000e+00
-7.00000e+00 -5.00000e+00  0.00000e+00
-8.00000e+00 -4.00000e+00  0.00000e+00
-8.00000e+00 -5.00000e+00  0.00000e+00
-9.00000e+00 -4.00000e+00  0.00000e+00
-9.00000e+00 -5.00000e+00  0.00000e+00
-1.00000e+01 -4.00000e+00  0.00000e+00
-1.00000e+01 -5.00000e+00  0.00000e+00
 0.00000e+00 -3.00000e+00  0.00000e+00
-1.00000e+00 -3.00000e+00  0.00000e+00
-2.00000e+00 -3.00000e+00  0.00000e+00
-3.00000e+00 -3.00000e+00  0.00000e+00
-4.00000e+00 -3.00000e+00  0.00000e+00
-5.00000e+00 -3.00000e+00  0.00000e+00
-6.00000e+00 -3.00000e+00  0.00000e+00
-7.00000e+00 -3.00000e+00  0.00000e+00
-8.00000e+00 -3.00000e+00  0.00000e+00
-9.00000e+00 -3.00000e+00  0.00000e+00
-1.00000e+01 -3.00000e+00  0.00000e+00
 0.00000e+00 -2.00000e+00  0.00000e+00
-1.00000e+00 -2.00000e+00  0.00000e+00
-2.00000e+00 -2.00000e+00  0.00000e+00
-3.00000e+00 -2.00000e+00  0.00000e+00
-4.00000e+00 -2.00000e+00  0.00000e+00
-5.00000e+00 -2.00000e+00  0.00000e+00
-6.00000e+00 -2.00000e+00  0.00000e+00
-7.00000e+00 -2.00000e+00  0.00000e+00
-8.00000e+00 -2.00000e+00  0.00000e+00
-9.00000e+00 -2.00000e+00  0.00000e+00
-1.00000e+01 -2.00000e+00  0.00000e+00
 0.00000e+00 -1.00000e+00  0.00000e+00
-1.00000e+00 -1.00000e+00  0.00000e+00
-2.00000e+00 -1.00000e+00  0.00000e+00
-3.00000e+00 -1.00000e+00  0.00000e+00
-4.00000e+00 -1.00000e+00  0.00000e+00
-5.00000e+00 -1.00000e+00  0.00000e+00
-6.00000e+00 -1.00000e+00  0.00000e+00
-7.00000e+00 -1.00000e+00  0.00000e+00
-8.00000e+00 -1.00000e+00  0.00000e+00
-9.00000e+00 -1.00000e+00  0.00000e+00
-1.00000e+01 -1.00000e+00  0.00000e+00
 0.00000e+00  0.00000e+00  0.00000e+00
-1.00000e+00  0.00000e+00  0.00000e+00
-2.00000e+00  0.00000e+00  0.00000e+00
-3.00000e+00  0.00000e+00  0.00000e+00
-4.00000e+00  0.00000e+00  0.00000e+00
-5.00000e+00  0.00000e+00  0.00000e+00
-6.00000e+00  0.00000e+00  0.00000e+00
-7.00000e+00  0.00000e+00  0.00000e+00
-8.00000e+00  0.00000e+00  0.00000e+00
-9.00000e+00  0.00000e+00  0.00000e+00
-1.00000e+01  0.00000e+00  0.00000e+00
 0.00000e+00  1.00000e+00  0.00000e+00
-1.00000e+00  1.00000e+00  0.00000e+00
-2.00000e+00  1.00000e+00  0.00000e+00
-3.00000e+00  1.00000e+00  0.00000e+00
-4.00000e+00  1.00000e+00  0.00000e+00
-5.00000e+00  1.00000e+00  0.00000e+00
-6.00000e+00  1.00000e+00  0.00000e+00
-7.00000e+00  1.00000e+00  0.00000e+00
-8.00000e+00  1.00000e+00  0.00000e+00
-9.00000e+00  1.00000e+00  0.00000e+00
-1.00000e+01  1.00000e+00  0.00000e+00
 0.00000e+00  2.00000e+00  0.00000e+00
-1.00000e+00  2.00000e+00  0.00000e+00
-2.00000e+00  2.00000e+00  0.00000e+00
-3.00000e+00  2.00000e+00  0.00000e+00
-4.00000e+00  2.00000e+00  0.00000e+00
-5.00000e+00  2.00000e+00  0.00000e+00
-6.00000e+00  2.00000e+00  0.00000e+00
-7.00000e+00  2.00000e+00  0.00000e+00
-8.00000e+00  2.00000e+00  0.00000e+00
-9.00000e+00  2.00000e+00  0.00000e+00
-1.00000e+01  2.00000e+00  0.00000e+00
 0.00000e+00  3.00000e+00  0.00000e+00
-1.00000e+00  3.00000e+00  0.00000e+00
-2.00000e+00  3.00000e+00  0.00000e+00
-3.00000e+00  3.00000e+00  0.00000e+00
-4.00000e+00  3.00000e+00  0.00000e+00
-5.00000e+00  3.00000e+00  0.00000e+00
-6.00000e+00  3.00000e+00  0.00000e+00
-7.00000e+00  3.00000e+00  0.00000e+00
-8.00000e+00  3.00000e+00  0.00000e+00
-9.00000e+00  3.00000e+00  0.00000e+00
-1.00000e+01  3.00000e+00  0.00000e+00
 0.00000e+00  4.00000e+00  0.00000e+00
-1.00000e+00  4.00000e+00  0.00000e+00
-2.00000e+00  4.00000e+00  0.00000e+00
-3.00000e+00  4.00000e+00  0.00000e+00
-4.00000e+00  4.00000e+00  0.00000e+00
-5.00000e+00  4.00000e+00  0.00000e+00
-6.00000e+00  4.00000e+00  0.00000e+00
-7.00000e+00  4.00000e+00  0.00000e+00
-8.00000e+00  4.00000e+00  0.00000e+00
-9.00000e+00  4.00000e+00  0.00000e+00
-1.00000e+01  4.00000e+00  0.00000e+00
 0.00000e+00  5.00000e+00  0.00000e+00
-1.00000e+00  5.00000e+00  0.00000e+00
-2.00000e+00  5.00000e+00  0.00000e+00
-3.00000e+00  5.00000e+00  0.00000e+00
-4.00000e+00  5.00000e+00  0.00000e+00
-5.00000e+00  5.00000e+00  0.00000e+00
-6.00000e+00  5.00000e+00  0.00000e+00
-7.00000e+00  5.00000e+00  0.00000e+00
-8.00000e+00  5.00000e+00  0.00000e+00
-9.00000e+00  5.00000e+00  0.00000e+00
-1.00000e+01  5.00000e+00  0.00000e+00
CELLS 200 1000
4 0 1 2 3 
4 1 0 4 5 
4 5 4 6 7 
4 7 6 8 9 
4 9 8 10 11 
4 11 10 12 13 
4 13 12 14 15 
4 15 14 16 17 
4 17 16 18 19 
4 19 18 20 21 
4 0 3 22 23 
4 4 0 23 24 
4 6 4 24 25 
4 8 6 25 26 
4 10 8 26 27 
4 12 10 27 28 
4 14 12 28 29 
4 16 14 29 30 
4 18 16 30 31 
4 20 18 31 32 
4 23 22 33 34 
4 24 23 34 35 
4 25 24 35 36 
4 26 25 36 37 
4 27 26 37 38 
4 28 27 38 39 
4 29 28 39 40 
4 30 29 40 41 
4 31 30 41 42 
4 32 31 42 43 
4 34 33 44 45 
4 35 34 45 46 
4 36 35 46 47 
4 37 36 47 48 
4 38 37 48 49 
4 39 38 49 50 
4 40 39 50 51 
4 41 40 51 52 
4 42 41 52 53 
4 43 42 53 54 
4 45 44 55 56 
4 46 45 56 57 
4 47 46 57 58 
4 48 47 58 59 
4 49 48 59 60 
4 50 49 60 61 
4 51 50 61 62 
4 52 51 62 63 
4 53 52 63 64 
4 54 53 64 65 
4 56 55 66 67 
4 57 56 67 68 
4 58 57 68 69 
4 59 58 69 70 
4 60 59 70 71 
4 61 60 71 72 
4 62 61 72 73 
4 63 62 73 74 
4 64 63 74 75 
4 65 64 75 76 
4 67 66 77 78 
4 68 67 78 79 
4 69 68 79 80 
4 70 69 80 81 
4 71 70 81 82 
4 72 71 82 83 
4 73 72 83 84 
4 74 73 84 85 
4 75 74 85 86 
4 76 75 86 87 
4 78 77 88 89 
4 79 78 89 90 
4 80 79 90 91 
4 81 80 91 92 
4 82 81 92 93 
4 83 82 93 94 
4 84 83 94 95 
4 85 84 95 96 
4 86 85 96 97 
4 87 86 97 98 
4 89 88 99 100 
4 90 89 100 101 
4 91 90 101 102 
4 92 91 102 103 
4 93 92 103 104 
4 94 93 104 105 
4 95 94 105 106 
4 96 95 106 107 
4 97 96 107 108 
4 98 97 108 109 
4 100 99 110 111 
4 101 100 111 112 
4 102 101 112 113 
4 103 102 113 114 
4 104 103 114 115 
4 105 104 115 116 
4 106 105 116 117 
4 107 106 117 118 
4 108 107 118 119 
4 109 108 119 120 
4 121 122 123 124 
4 122 121 125 126 
4 126 125 127 128 
4 128 127 129 130 
4 130 129 131 132 
4 132 131 133 134 
4 134 133 135 136 
4 136 135 137 138 
4 138 137 139 140 
4 140 139 141 142 
4 121 124 143 144 
4 125 121 144 145 
4 127 125 145 146 
4 129 127 146 147 
4 131 129 147 148 
4 133 131 148 149 
4 135 133 149 150 
4 137 135 150 151 
4 139 137 151 152 
4 141 139 152 153 
4 144 143 154 155 
4 145 144 155 156 
4 146 145 156 157 
4 147 146 157 158 
4 148 147 158 159 
4 149 148 159 160 
4 150 149 160 161 
4 151 150 161 162 
4 152 151 162 163 
4 153 152 163 164 
4 155 154 165 166 
4 156 155 166 167 
4 157 156 167 168 
4 158 157 168 169 
4 159 158 169 170 
4 160 159 170 171 
4 161 160 171 172 
4 162 161 172 173 
4 163 162 173 174 
4 164 163 174 175 
4 166 165 176 177 
4 167 166 177 178 
4 168 167 178 179 
4 169 168 179 180 
4 170 169 180 181 
4 171 170 181 182 
4 172 171 182 183 
4 173 172 183 184 
4 174 173 184 185 
4 175 174 185 186 
4 177 176 187 188 
4 178 177 188 189 
4 179 178 189 190 
4 180 179 190 191 
4 181 180 191 192 
4 182 181 192 193 
4 183 182 193 194 
4 184 183 194 195 
4 185 184 195 196 
4 186 185 196 197 
4 188 187 198 199 
4 189 188 199 200 
4 190 189 200 201 
4 191 190 201 202 
4 192 191 202 203 
4 193 192 203 204 
4 194 193 204 205 
4 195 194 205 206 
4 196 195 206 207 
4 197 196 207 208 
4 199 198 209 210 
4 200 199 210 211 
4 201 200 211 212 
4 202 201 212 213 
4 203 202 213 214 
4 204 203 214 215 
4 205 204 215 216 
4 206 205 216 217 
4 207 206 217 218 
4 208 207 218 219 
4 210 209 220 221 
4 211 210 221 222 
4 212 211 222 223 
4 213 212 223 224 
4 214 213 224 225 
4 215 214 225 226 
4 216 215 226 227 
4 217 216 227 228 
4 218 217 228 229 
4 219 218 229 230 
4 221 220 231 232 
4 222 221 232 233 
4 223 222 233 234 
4 224 223 234 235 
4 225 224 235 236 
4 226 225 236 237 
4 227 226 237 238 
4 228 227 238 239 
4 229 228 239 240 
4 230 229 240 241 
CELL_TYPES 200
9
9
9
9
9
9
9
9
9
9
9
9
9
9
9
9
9
9
9
9
9
9
9
9
9
9
9
9
9
9
9
9
9
9
9
9
9
9
9
9
9
9
9
9
9
9
9
9
9
9
9
9
9
9
9
9
9
9
9
9
9
9
9
9
9
9
9
9
9
9
9
9
9
9
9
9
9
9
9
9
9
9
9
9
9
9
9
9
9
9
9
9
9
9
9
9
9
9
9
9
9
9
9
9
9
9
9
9
9
9
9
9
9
9
9
9
9
9
9
9
9
9
9
9
9
9
9
9
9
9
9
9
9
9
9
9
9
9
9
9
9
9
9
9
9
9
9
9
9
9
9
9
9
9
9
9
9
9
9
9
9
9
9
9
9
9
9
9
9
9
9
9
9
9
9
9
9
9
9
9
9
9
9
9
9
9
9
9
9
9
9
9
9
9
9
9
9
9
9
9
CELL_DATA 200
SCALARS MassFraction double
LOOKUP_TABLE default
 2.08333e-01
 2.08333e-01
 2.08333e-01
 2.08333e-01
 2.08333e-01
 2.08333e-01
 2.08333e-01
 2.08333e-01
 2.08333e-01
 2.08333e-01
 2.91667e-01
 2.91667e-01
 2.91667e-01
 2.91667e-01
 2.91667e-01
 2.91667e-01
 2.91667e-01
 2.91667e-01
 2.91667e-01
 2.91667e-01
 3.75000e-01
 3.75000e-01
 3.75000e-01
 3.75000e-01
 3.75000e-01
 3.75000e-01
 3.75000e-01
 3.75000e-01
 3.75000e-01
 3.75000e-01
 4.58333e-01
 4.58333e-01
 4.58333e-01
 4.58333e-01
 4.58333e-01
 4.58333e-01
 4.58333e-01
 4.58333e-01
 4.58333e-01
 4.58333e-01
 5.41667e-01
 5.41667e-01
 5.41667e-01
 5.41667e-01
 5.41667e-01
 5.41667e-01
 5.41667e-01
 5.41667e-01
 5.41667e-01
 5.41667e-01
 6.25000e-01
 6.25000e-01
 6.25000e-01
 6.25000e-01
 6.25000e-01
 6.25000e-01
 6.25000e-01
 6.25000e-01
 6.25000e-01
 6.25000e-01
 7.08333e-01
 7.08333e-01
 7.08333e-01
 7.08333e-01
 7.08333e-01
 7.08333e-01
 7.08333e-01
 7.08333e-01
 7.08333e-01
 7.08333e-01
 7.91667e-01
 7.91667e-01
 7.91667e-01
 7.91667e-01
 7.91667e-01
 7.91667e-01
 7.91667e-01
 7.91667e-01
 7.91667e-01
 7.91667e-01
 8.75000e-01
 8.75000e-01
 8.75000e-01
 8.75000e-01
 8.75000e-01
 8.75000e-01
 8.75000e-01
 8.75000e-01
 8.75000e-01
 8.75000e-01
 9.58333e-01
 9.58333e-01
 9.58333e-01
 9.58333e-01
 9.58333e-01
 9.58333e-01
 9.58333e-01
 9.58333e-01
 9.58333e-01
 9.58333e-01
 1.58333e-01
 1.41667e-01
 1.25000e-01
 1.08333e-01
 9.16667e-02
 7.50000e-02
 5.83333e-02
 4.16667e-02
 2.50000e-02
 8.33333e-03
 1.58333e-01
 1.41667e-01
 1.25000e-01
 1.08333e-01
 9.16667e-02
 7.50000e-02
 5.83333e-02
 4.16667e-02
 2.50000e-02
 8.33333e-03
 1.58333e-01
 1.41667e-01
 1.25000e-01
 1.08333e-01
 9.16667e-02
 7.50000e-02
 5.83333e-02
 4.16667e-02
 2.50000e-02
 8.33333e-03
 1.58333e-01
 1.41667e-01
 1.25000e-01
 1.08333e-01
 9.16667e-02
 7.50000e-02
 5.83333e-02
 4.16667e-02
 2.50000e-02
 8.33333e-03
 1.58333e-01
 1.41667e-01
 1.25000e-01
 1.08333e-01
 9.16667e-02
 7.50000e-02
 5.83333e-02
 4.16667e-02
 2.50000e-02
 8.33333e-03
 1.58333e-01
 1.41667e-01
 1.25000e-01
 1.08333e-01
 9.16667e-02
 7.50000e-02
 5.83333e-02
 4.16667e-02
 2.50000e-02
 8.33333e-03
 1.58333e-01
 1.41667e-01
 1.25000e-01
 1.08333e-01
 9.16667e-02
 7.50000e-02
 5.83333e-02
 4.16667e-02
 2.50000e-02
 8.33333e-03
 1.58333e-01
 1.41667e-01
 1.25000e-01
 1.08333e-01
 9.16667e-02
 7.50000e-02
 5.83333e-02
 4.16667e-02
 2.50000e-02
 8.33333e-03
 1.58333e-01
 1.41667e-01
 1.25000e-01
 1.08333e-01
 9.16667e-02
 7.50000e-02
 5.83333e-02
 4.16667e-02
 2.50000e-02
 8.33333e-03
 1.58333e-01
 1.41667e-01
 1.25000e-01
 1.08333e-01
 9.16667e-02
 7.50000e-02
 5.83333e-02
 4.16667e-02
 2.50000e-02
 8.33333e-03
