# vtk DataFile Version 2.0
TestTemperature
ASCII
DATASET UNSTRUCTURED_GRID
POINTS 135 double
 6.25000e-02  0.00000e+00  6.25000e-02
 6.25000e-02  6.25000e-02  6.25000e-02
 6.25000e-02  6.25000e-02  0.00000e+00
 6.25000e-02  0.00000e+00  0.00000e+00
 0.00000e+00  0.00000e+00  6.25000e-02
 0.00000e+00  6.25000e-02  6.25000e-02
 0.00000e+00  6.25000e-02  0.00000e+00
 0.00000e+00  0.00000e+00  0.00000e+00
 5.00000e-01  5.00000e-01  0.00000e+00
 1.00000e+00  5.00000e-01  0.00000e+00
 1.00000e+00  5.00000e-01  5.00000e-01
 5.00000e-01  5.00000e-01  5.00000e-01
 5.00000e-01  0.00000e+00  5.00000e-01
 1.00000e+00  0.00000e+00  5.00000e-01
 5.00000e-01  0.00000e+00  0.00000e+00
 5.00000e-01  2.50000e-01  0.00000e+00
 5.00000e-01  2.50000e-01  2.50000e-01
 5.00000e-01  0.00000e+00  2.50000e-01
 5.00000e-01  2.50000e-01  5.00000e-01
 5.00000e-01  5.00000e-01  2.50000e-01
 1.00000e+00  0.00000e+00  0.00000e+00
 5.00000e-01  1.00000e+00  0.00000e+00
 5.00000e-01  1.00000e+00  5.00000e-01
 0.00000e+00  5.00000e-01  0.00000e+00
 2.50000e-01  5.00000e-01  0.00000e+00
 2.50000e-01  5.00000e-01  2.50000e-01
 0.00000e+00  5.00000e-01  2.50000e-01
 2.50000e-01  5.00000e-01  5.00000e-01
 0.00000e+00  5.00000e-01  5.00000e-01
 2.50000e-01  7.50000e-01  5.00000e-01
 0.00000e+00  7.50000e-01  5.00000e-01
 2.50000e-01  1.00000e+00  5.00000e-01
 0.00000e+00  1.00000e+00  5.00000e-01
 5.00000e-01  7.50000e-01  5.00000e-01
 0.00000e+00  1.00000e+00  0.00000e+00
 7.50000e-01  5.00000e-01  5.00000e-01
 7.50000e-01  7.50000e-01  5.00000e-01
 7.50000e-01  1.00000e+00  5.00000e-01
 1.00000e+00  7.50000e-01  5.00000e-01
 1.00000e+00  1.00000e+00  5.00000e-01
 1.00000e+00  1.00000e+00  0.00000e+00
 5.00000e-01  5.00000e-01  1.00000e+00
 5.00000e-01  0.00000e+00  1.00000e+00
 0.00000e+00  0.00000e+00  5.00000e-01
 2.50000e-01  0.00000e+00  5.00000e-01
 2.50000e-01  2.50000e-01  5.00000e-01
 0.00000e+00  2.50000e-01  5.00000e-01
 2.50000e-01  5.00000e-01  7.50000e-01
 0.00000e+00  5.00000e-01  7.50000e-01
 2.50000e-01  5.00000e-01  1.00000e+00
 0.00000e+00  5.00000e-01  1.00000e+00
 5.00000e-01  5.00000e-01  7.50000e-01
 0.00000e+00  0.00000e+00  1.00000e+00
 7.50000e-01  5.00000e-01  7.50000e-01
 7.50000e-01  5.00000e-01  1.00000e+00
 1.00000e+00  5.00000e-01  7.50000e-01
 1.00000e+00  5.00000e-01  1.00000e+00
 1.00000e+00  0.00000e+00  1.00000e+00
 2.50000e-01  7.50000e-01  7.50000e-01
 0.00000e+00  7.50000e-01  7.50000e-01
 5.00000e-01  7.50000e-01  7.50000e-01
 7.50000e-01  7.50000e-01  7.50000e-01
 2.50000e-01  0.00000e+00  2.50000e-01
 2.50000e-01  2.50000e-01  2.50000e-01
 0.00000e+00  2.50000e-01  2.50000e-01
 0.00000e+00  0.00000e+00  2.50000e-01
 1.25000e-01  0.00000e+00  2.50000e-01
 1.25000e-01  1.25000e-01  2.50000e-01
 0.00000e+00  1.25000e-01  2.50000e-01
 1.25000e-01  2.50000e-01  2.50000e-01
 2.50000e-01  1.25000e-01  2.50000e-01
 2.50000e-01  2.50000e-01  0.00000e+00
 0.00000e+00  2.50000e-01  0.00000e+00
 1.25000e-01  2.50000e-01  0.00000e+00
 1.25000e-01  2.50000e-01  1.25000e-01
 0.00000e+00  2.50000e-01  1.25000e-01
 2.50000e-01  2.50000e-01  1.25000e-01
 2.50000e-01  0.00000e+00  0.00000e+00
 2.50000e-01  1.25000e-01  0.00000e+00
 2.50000e-01  1.25000e-01  1.25000e-01
 2.50000e-01  0.00000e+00  1.25000e-01
 5.00000e-01  7.50000e-01  1.00000e+00
 7.50000e-01  7.50000e-01  1.00000e+00
 5.00000e-01  1.00000e+00  7.50000e-01
 7.50000e-01  1.00000e+00  7.50000e-01
 5.00000e-01  1.00000e+00  1.00000e+00
 7.50000e-01  1.00000e+00  1.00000e+00
 1.00000e+00  7.50000e-01  7.50000e-01
 1.00000e+00  7.50000e-01  1.00000e+00
 1.00000e+00  1.00000e+00  7.50000e-01
 1.00000e+00  1.00000e+00  1.00000e+00
 2.50000e-01  7.50000e-01  1.00000e+00
 1.25000e-01  7.50000e-01  7.50000e-01
 1.25000e-01  7.50000e-01  8.75000e-01
 0.00000e+00  7.50000e-01  8.75000e-01
 1.25000e-01  7.50000e-01  1.00000e+00
 0.00000e+00  7.50000e-01  1.00000e+00
 2.50000e-01  7.50000e-01  8.75000e-01
 2.50000e-01  1.00000e+00  7.50000e-01
 1.25000e-01  8.75000e-01  7.50000e-01
 0.00000e+00  8.75000e-01  7.50000e-01
 1.25000e-01  1.00000e+00  7.50000e-01
 0.00000e+00  1.00000e+00  7.50000e-01
 2.50000e-01  8.75000e-01  7.50000e-01
 1.25000e-01  8.75000e-01  8.75000e-01
 0.00000e+00  8.75000e-01  8.75000e-01
 2.50000e-01  8.75000e-01  8.75000e-01
 2.50000e-01  8.75000e-01  1.00000e+00
 2.50000e-01  1.00000e+00  8.75000e-01
 2.50000e-01  1.00000e+00  1.00000e+00
 1.25000e-01  0.00000e+00  1.25000e-01
 1.25000e-01  1.25000e-01  1.25000e-01
 0.00000e+00  1.25000e-01  1.25000e-01
 0.00000e+00  0.00000e+00  1.25000e-01
 6.25000e-02  0.00000e+00  1.25000e-01
 6.25000e-02  6.25000e-02  1.25000e-01
 0.00000e+00  6.25000e-02  1.25000e-01
 6.25000e-02  1.25000e-01  1.25000e-01
 1.25000e-01  6.25000e-02  1.25000e-01
 1.25000e-01  1.25000e-01  0.00000e+00
 0.00000e+00  1.25000e-01  0.00000e+00
 6.25000e-02  1.25000e-01  0.00000e+00
 6.25000e-02  1.25000e-01  6.25000e-02
 0.00000e+00  1.25000e-01  6.25000e-02
 1.25000e-01  1.25000e-01  6.25000e-02
 1.25000e-01  0.00000e+00  0.00000e+00
 1.25000e-01  6.25000e-02  0.00000e+00
 1.25000e-01  6.25000e-02  6.25000e-02
 1.25000e-01  0.00000e+00  6.25000e-02
 1.25000e-01  8.75000e-01  1.00000e+00
 0.00000e+00  8.75000e-01  1.00000e+00
 1.25000e-01  1.00000e+00  8.75000e-01
 0.00000e+00  1.00000e+00  8.75000e-01
 1.25000e-01  1.00000e+00  1.00000e+00
 0.00000e+00  1.00000e+00  1.00000e+00
CELLS 50 528
8 0 1 2 3 4 5 6 7 
13 8 9 10 11 12 13 14 15 16 17 18 19 20 
17 8 21 22 11 23 24 25 26 27 28 19 29 30 31 32 33 34 
13 8 21 22 11 9 10 35 36 33 37 38 39 40 
17 12 11 41 42 43 44 45 46 27 28 18 47 48 49 50 51 52 
13 12 11 41 42 13 10 35 53 51 54 55 56 57 
8 47 58 29 27 48 59 30 28 
8 11 33 60 51 35 36 61 53 
13 62 63 45 44 64 46 43 65 66 67 68 69 70 
13 71 24 25 63 23 26 64 72 73 74 75 69 76 
8 45 27 25 63 46 28 26 64 
13 14 15 16 17 71 63 62 77 78 79 80 70 76 
8 62 63 45 44 17 16 18 12 
8 71 24 25 63 15 8 19 16 
8 63 25 27 45 16 19 11 18 
8 51 60 81 41 53 61 82 54 
8 33 22 83 60 36 37 84 61 
8 60 83 85 81 61 84 86 82 
8 35 36 61 53 10 38 87 55 
8 53 61 82 54 55 87 88 56 
8 36 37 84 61 38 39 89 87 
8 61 84 86 82 87 89 90 88 
13 47 58 91 49 48 50 59 92 93 94 95 96 97 
13 29 31 98 58 30 59 32 92 99 100 101 102 103 
8 93 104 99 92 94 105 100 59 
8 51 60 33 11 47 58 29 27 
8 41 81 60 51 49 91 58 47 
8 60 83 22 33 58 98 31 29 
13 60 83 85 81 58 91 98 103 106 97 107 108 109 
13 110 111 67 66 112 68 65 113 114 115 116 117 118 
13 119 73 74 111 72 75 112 120 121 122 123 117 124 
8 67 69 74 111 68 64 75 112 
13 77 78 79 80 119 111 110 125 126 127 128 118 124 
8 110 111 67 66 80 79 70 62 
8 119 73 74 111 78 71 76 79 
8 111 74 69 67 79 76 63 70 
8 95 129 104 93 96 130 105 94 
8 104 131 101 99 105 132 102 100 
8 129 133 131 104 130 134 132 105 
8 92 99 104 93 58 103 106 97 
8 93 104 129 95 97 106 107 91 
8 99 101 131 104 103 98 108 106 
8 104 131 133 129 106 108 109 107 
8 114 115 1 0 113 116 5 4 
8 1 122 121 2 5 123 120 6 
8 115 117 122 1 116 112 123 5 
8 3 2 1 0 125 126 127 128 
8 0 1 115 114 128 127 118 110 
8 2 121 122 1 126 119 124 127 
8 1 122 117 115 127 124 111 118 
CELL_TYPES 50
12
41
41
41
41
41
12
12
41
41
12
41
12
12
12
12
12
12
12
12
12
12
41
41
12
12
12
12
41
41
41
12
41
12
12
12
12
12
12
12
12
12
12
12
12
12
12
12
12
12
CELL_DATA 50
SCALARS Temperature double
LOOKUP_TABLE default
 3.03125e+02
 3.75000e+02
 3.25000e+02
 3.75000e+02
 3.25000e+02
 3.75000e+02
 3.12500e+02
 3.62500e+02
 3.12500e+02
 3.12500e+02
 3.12500e+02
 3.37500e+02
 3.37500e+02
 3.37500e+02
 3.37500e+02
 3.62500e+02
 3.62500e+02
 3.62500e+02
 3.87500e+02
 3.87500e+02
 3.87500e+02
 3.87500e+02
 3.12500e+02
 3.12500e+02
 3.06250e+02
 3.37500e+02
 3.37500e+02
 3.37500e+02
 3.37500e+02
 3.06250e+02
 3.06250e+02
 3.06250e+02
 3.18750e+02
 3.18750e+02
 3.18750e+02
 3.18750e+02
 3.06250e+02
 3.06250e+02
 3.06250e+02
 3.18750e+02
 3.18750e+02
 3.18750e+02
 3.18750e+02
 3.03125e+02
 3.03125e+02
 3.03125e+02
 3.09375e+02
 3.09375e+02
 3.09375e+02
 3.09375e+02
